LAMMPS data file via write_data, version 2 Aug 2023, timestep = 235000, units = metal

2550 atoms
6 atom types

0.8802477584048987 65.00875224159421 xlo xhi
0.8802477584048987 65.00875224159421 ylo yhi
0.2640743275219428 19.502625672477222 zlo zhi

Masses

1 207.2
2 126.90447
3 132.90545
4 12.0107
5 14.0067
6 1.00794

Atoms # atomic

1351 4 3.991417418040227 3.3687189953843335 3.352473016631933 0 0 0
1353 5 5.221949568972828 3.8525972640953396 3.1801315441834928 0 0 0
1352 5 3.0246724776474 3.409634655236109 2.449100549257616 0 0 0
1356 6 3.1612282372368306 3.9162417408065338 1.6031672378297979 0 0 0
1355 6 2.130847131044144 2.9529133051520775 2.6876787809366816 0 0 0
1354 6 3.8554202061826532 3.024224305744325 4.368055622070738 0 0 0
1357 6 5.6565954156769775 4.130186575297932 2.304544541263221 0 0 0
1358 6 5.833943938016601 3.854091472787135 4.014043038459704 0 0 0
1478 6 10.028777864023178 4.813993689466945 1.5659939703744146 0 0 0
1474 6 8.861583033880581 3.9387462159399202 3.444458376785396 0 0 0
1471 4 9.935843543896977 3.875427680846099 3.3797697512310525 0 0 0
1473 5 10.50252114381482 4.228540834341715 2.2261107723655735 0 0 0
1476 6 11.612417214333451 3.499880054203801 4.550645937547823 0 0 0
1477 6 11.502040485400666 4.149978293749504 2.130336582263212 0 0 0
1472 5 10.602219002551706 3.4420401194675465 4.407481406491169 0 0 0
1475 6 10.069725644954309 3.0585397875994014 5.210245512072244 0 0 0
273 2 13.697602979089078 3.930341765156782 0.390359647175124 0 0 0
1591 4 16.577801059398013 4.200080331197233 3.3856661499521343 0 0 0
1592 5 16.781475355717767 5.385592714876281 2.844551044771188 0 0 0
1594 6 15.662380032086837 4.09730419268632 3.9137898162972435 0 0 0
1593 5 17.51168467359708 3.273418282996225 3.445852418849334 0 0 0
1597 6 18.335146993977222 3.3572276619782904 2.814782719041002 0 0 0
1598 6 17.503733895865235 2.470237194390231 4.040089511928793 0 0 0
1713 5 23.46526753150926 3.9724631664279704 2.420781956038244 0 0 0
1711 4 23.325307728584175 3.629880723520239 3.66827672237113 0 0 0
1712 5 23.019991318841676 2.409023922556111 4.07748474924783 0 0 0
1717 6 23.613036028933653 3.2653355334193552 1.7088458182612276 0 0 0
1716 6 22.932193212031134 1.6228324932863742 3.447157940076088 0 0 0
1714 6 23.332404142246865 4.409793747987639 4.411775607937566 0 0 0
1715 6 23.038862946729417 2.098125802975223 5.054515021349722 0 0 0
1718 6 23.58332648916726 4.926196344181257 2.1462147279337715 0 0 0
542 2 26.759095117030903 1.1419841649642355 3.6262504975220224 0 0 0
1833 5 28.8767395931718 3.855345054808158 4.071747842588593 0 0 0
1831 4 29.838069780115312 4.527547836063669 3.46765327047336 0 0 0
1832 5 30.975310584286078 3.9507934930380117 3.04284985277074 0 0 0
1835 6 31.752743812203466 4.592055809369194 2.893347682959268 0 0 0
1836 6 31.255328364187612 2.9711993075148966 3.2000249974646464 0 0 0
680 3 36.4136391390381 4.800834249635202 3.7284099693739243 0 0 0
677 2 32.92585227855939 64.95568409143075 3.7922265376940913 0 -1 0
811 1 39.29803982372832 1.4104179542899664 0.6287005561432566 0 0 0
815 3 42.26714150084406 4.025925708007291 2.500656077522814 0 0 0
947 2 45.754243217548776 1.2882135534299726 3.472090914739017 0 0 0
950 3 47.88735916801877 4.756351509437797 3.4336334714493892 0 0 0
949 2 48.940932801439956 1.5566361681018428 0.4842469120191293 0 0 0
1085 3 56.071706500490876 4.619158071377855 2.879592606281435 0 0 0
1083 2 52.5125057479703 3.8569663695195686 0.7920993315002972 0 0 0
1217 2 58.00014231295876 1.4782288468082183 2.9664188530925464 0 0 0
1220 3 61.590121501589195 4.130969552714047 3.1708636175628495 0 0 0
1382 6 4.1913338000202485 8.387715809044842 3.0009673038589355 0 0 0
1377 5 3.683959879788452 9.267806629297432 2.973521180978136 0 0 0
1381 6 2.756309410979515 9.21503380908342 2.661698366086696 0 0 0
16 2 3.6763775101256866 6.39818049174997 0.29300404145474884 0 0 0
149 2 7.075332426821509 7.137282441834587 3.020340740901391 0 0 0
1502 6 12.126429822160059 11.23006659303691 2.356116904577377 0 0 0
284 2 13.52777038600603 7.397345502742887 3.416295827801061 0 0 0
1498 6 10.291482952908956 10.410621622321047 1.0988639162217126 0 0 0
283 1 13.501097170436205 7.104154008172411 0.3553116093684027 0 0 0
1595 6 16.009364309038716 6.039906048941226 2.8539801191928333 0 0 0
1596 6 17.653439881299736 5.527446795295701 2.3289251689026034 0 0 0
1618 6 16.620201797203475 10.753817647560066 2.0279485566724467 0 0 0
1622 6 15.242464105087395 9.71001654927727 3.4781633351286425 0 0 0
286 2 16.91808902754123 7.800026064623089 0.3678170753681244 0 0 0
419 2 20.69830094207592 6.624647859118742 3.3917082099596683 0 0 0
1736 5 23.85634710408874 9.149932126164247 2.9761819323266927 0 0 0
421 2 23.3463137981022 6.697816723898131 0.3344385694003385 0 0 0
1739 6 23.74660376128876 8.375861984061407 2.35481233734264 0 0 0
1740 6 24.366738651873696 8.970606981217097 3.834979056892721 0 0 0
554 2 26.99118159325181 7.2091800526485335 3.4913720921403044 0 0 0
1834 6 29.65321203039016 5.609347390190349 3.2891096786201484 0 0 0
692 2 32.798536677847295 7.29564941074808 3.569489223997186 0 0 0
1860 6 30.455469938940933 8.612348795038818 3.103723277045539 0 0 0
694 2 36.052452079078805 7.66952749846065 0.571114115284254 0 0 0
691 1 32.91532470363453 7.47075281586699 19.48543239383239 0 0 -1
827 2 39.79547505827494 7.356899435582468 3.566758651394273 0 0 0
962 2 45.52346421754098 7.535865564113721 3.4320307960687426 0 0 0
961 1 45.873712370171695 7.675017519537336 0.369352480419484 0 0 0
829 2 42.67417149410984 7.2666446538304275 19.332690300741355 0 0 -1
964 2 48.994844950984245 7.883927330666682 0.7808202667110427 0 0 0
1097 2 52.16762979648605 7.631133397640316 3.2822167681778893 0 0 0
1096 1 52.347031747929506 6.996888058328672 19.308881921052656 0 0 -1
1232 2 59.16196364084682 7.11673701155091 2.890735433427425 0 0 0
14 2 64.6057915681645 7.624909697936227 3.2749344738549357 -1 0 0
1375 4 4.268673846239061 10.352163338707694 3.30144064932734 0 0 0
1380 6 2.862443435778119 11.757761243251448 2.8851350673723326 0 0 0
1376 5 3.777936744833876 11.588702655095966 3.2403811453534277 0 0 0
1379 6 4.3604582934354505 12.340426936006848 3.6401208992176386 0 0 0
1378 6 5.253003721115872 10.33823699410881 3.7899220992313594 0 0 0
161 2 7.287605011490254 14.023383814203804 3.1279154317066 0 0 0
1496 5 9.027691093391256 10.449070800337992 2.703887272783536 0 0 0
1499 6 8.33971701074347 10.028391360814819 2.091214585069877 0 0 0
1500 6 8.878353814779876 10.606640304256638 3.727974905667328 0 0 0
1501 6 11.114000862645515 11.687482245077824 3.7075304782208 0 0 0
1497 5 11.207718766745373 11.366749133346524 2.719686316415186 0 0 0
1495 4 10.190766589661308 10.793184101770995 2.1155256959844024 0 0 0
163 2 10.669772959059104 13.687164710159516 19.485431670036117 0 0 -1
285 2 14.043291447191649 10.623777650283124 0.3630333234047508 0 0 0
296 2 13.840506223636313 13.799536142333698 3.6737900665230225 0 0 0
295 1 13.770473942441184 13.825542251231639 0.38282633067682914 0 0 0
1617 5 16.082068697738066 10.168228073028995 3.9071029496482397 0 0 0
1615 4 17.031018862370825 10.510024566922592 2.9839508119469857 0 0 0
1619 6 18.91774155911643 10.804454596822392 2.3395903983747286 0 0 0
1616 5 18.33629903902139 10.65406059402171 3.1503814721181795 0 0 0
1620 6 18.816573520191643 10.58176454510853 4.062417622663968 0 0 0
1621 6 16.43072072950728 9.612622326014916 4.738918096912255 0 0 0
298 2 16.899334720079302 14.320855364034866 0.4120391141346871 0 0 0
431 2 20.945152188049246 14.205711346460436 3.4234130262855027 0 0 0
1735 4 23.342545116233467 10.346581377901611 2.7297827767062537 0 0 0
1738 6 22.5836698462698 10.440356160692042 1.952613955930746 0 0 0
1742 6 23.094668123221172 12.231427638672496 3.538698092226168 0 0 0
1737 5 23.591315365381757 11.319618272995822 3.5434422615204673 0 0 0
1741 6 24.26061298447038 11.313424681646717 4.289653957396192 0 0 0
566 2 25.841898541387796 14.549916932812835 3.5646701439994857 0 0 0
565 1 26.89783771713406 13.843774542870136 0.6939144914187003 0 0 0
1862 6 31.285112075287156 12.174121528701866 3.9043831093405177 0 0 0
1857 5 31.13092590595064 11.156786985588239 3.7336068010564873 0 0 0
1858 6 29.099154024250403 11.15669309161331 4.133852269071854 0 0 0
1859 6 28.864227911809657 8.913233202234478 3.461728786001773 0 0 0
1861 6 31.936453622635103 10.606298461930795 3.2687102982298453 0 0 0
1856 5 29.76867196238656 9.355062356090912 3.3046806444619796 0 0 0
1855 4 29.97266679287659 10.592312893390513 3.79891838398333 0 0 0
568 2 29.935303738510733 13.935242019852948 0.4108571399455544 0 0 0
695 3 36.612825531732966 10.595392030460353 4.133855009219407 0 0 0
707 2 33.36350048831848 13.561867320745758 3.8536046198017426 0 0 0
706 1 33.28359421403973 13.647768807764384 0.48149489207506746 0 0 0
709 2 36.28446861281743 12.978956334594528 0.28318631209087075 0 0 0
842 2 39.08406719914918 13.814986251108207 3.66609602078836 0 0 0
828 2 40.3904677844198 10.886651497839454 0.6178803601931904 0 0 0
841 1 39.425785943150814 13.787550428426426 0.6319161805035123 0 0 0
830 3 42.458950221697954 10.46776398909466 3.9540628659667947 0 0 0
977 2 45.93893428295794 14.352587486802635 3.6217815460533753 0 0 0
965 3 49.145100301351306 10.613883084332366 3.314132743846924 0 0 0
1100 3 55.11651869498672 10.726132784679098 3.7746926150162845 0 0 0
1112 2 52.00278180777928 13.74543851160204 3.233663449292135 0 0 0
1247 2 59.19276804192123 14.23926131046058 3.123208250546583 0 0 0
26 2 64.62255939687117 14.038762734119175 3.047415458543141 -1 0 0
1235 3 61.14097436018362 10.705643713360454 3.484855223158329 0 0 0
1399 4 3.7001353498412106 16.90538332269671 3.4675952274153623 0 0 0
1400 5 3.542102990440928 15.814658183500638 2.7249739719422803 0 0 0
1401 5 4.782094593236649 17.694900833066438 3.396999576136113 0 0 0
1405 6 5.557244950021895 17.515688604882843 2.6684938896396857 0 0 0
1404 6 4.2917175913293075 15.399276034559225 2.2125332765311607 0 0 0
1403 6 2.5915562350239725 15.403699162336771 2.603222988320399 0 0 0
1402 6 2.9139125655459206 17.151458825605022 4.193117514143205 0 0 0
1406 6 4.9813249571128795 18.395757039086323 4.142825497897146 0 0 0
1525 6 10.292536261873572 15.3506522358058 3.576373953686135 0 0 0
1524 6 9.580361712934247 17.36412806059627 4.785202026173546 0 0 0
1526 6 11.518234830420232 15.67170387447259 2.30594723356003 0 0 0
1521 5 10.727173837688024 15.99441086907848 2.9152814856317444 0 0 0
1522 6 11.450747942152436 17.893646426249536 2.485910097021125 0 0 0
1519 4 10.842332485730383 17.284971119514367 3.1866891036279568 0 0 0
1520 5 10.160517749982485 17.892338369364968 4.138819743953874 0 0 0
297 2 13.626965973063465 16.97907335306677 0.5245493846080358 0 0 0
1639 4 16.826327102420038 16.710126555040823 3.464101885959893 0 0 0
1641 5 16.200017051975436 17.481243846428487 4.368636121517373 0 0 0
1642 6 16.193769321867137 16.00274024877444 2.9383828629763555 0 0 0
1640 5 18.10876220936331 16.714639640469194 3.238964436314093 0 0 0
1646 6 15.167497600516963 17.46245569249601 4.540849457234894 0 0 0
1645 6 16.672800565804074 18.22603198851499 4.907220553902995 0 0 0
1644 6 18.868566673096076 17.0906792349067 3.883785343012055 0 0 0
1643 6 18.331313763506042 16.28101027818519 2.32850229614285 0 0 0
1763 6 23.962619538174305 18.235478419061977 1.6290812100945085 0 0 0
1762 6 22.471171338119067 18.760669845673327 3.4580051328291823 0 0 0
1759 4 23.31830064358951 18.024025126637152 3.565969280419417 0 0 0
1761 5 23.44866360922484 17.369522610031552 4.735536459212042 0 0 0
1760 5 24.09663135341804 17.743586651044048 2.5566758829053207 0 0 0
1766 6 22.712819087597346 17.505501741526807 5.405060568184089 0 0 0
1764 6 24.848791931088765 17.00838125805352 2.5764876423854055 0 0 0
1765 6 24.16584335570371 16.616879860871066 4.895816704921748 0 0 0
1883 6 28.429731888733322 17.850500683617334 3.1226655444311016 0 0 0
1884 6 29.311862693096202 16.6444200994951 2.193732620872811 0 0 0
1886 6 32.023021175506145 16.73590957820845 4.489810705160558 0 0 0
1879 4 30.189619725431093 17.312078855600326 3.9176297692469837 0 0 0
1880 5 29.173675386626858 17.16528185683874 3.0520772931161795 0 0 0
1881 5 31.340024474576346 16.730955512786153 3.7342951127415307 0 0 0
1885 6 31.64273513869377 16.315284441247783 2.8545679688936283 0 0 0
1882 6 30.029820185717135 17.939785087141505 4.788367891414291 0 0 0
708 2 33.44937885609301 16.975348003032316 0.6246164355786634 0 0 0
710 3 36.38635666804442 16.6423889283868 4.237136752058257 0 0 0
845 3 41.80544291451722 16.803298037892148 3.0491493554095723 0 0 0
980 3 49.455180440070954 16.808891761068658 4.072279870831861 0 0 0
1115 3 55.19566342253531 16.8644093816773 3.472143442473342 0 0 0
1250 3 61.646988710522756 17.635019685080533 3.086334279803418 0 0 0
1424 5 2.4164669330136075 23.097593638225987 2.650404140526445 0 0 0
1428 6 2.0354618084061458 22.420795968234113 3.343534606924948 0 0 0
1425 5 4.5935649138720525 23.163202547456702 3.5350520321175 0 0 0
40 2 4.080974236075792 20.004087535435435 0.4473270629581111 0 0 0
1423 4 3.6412689484632823 23.59323707124506 2.7217797600032014 0 0 0
1427 6 1.8392660078508363 23.3416925160929 1.8379138340352252 0 0 0
1426 6 4.007550847867156 24.33254053332155 1.9980096872427238 0 0 0
1430 6 5.519940980675386 23.52817165669816 3.4722486659619958 0 0 0
1429 6 4.468455321466871 22.33150473398998 4.117456146403921 0 0 0
173 2 7.525668550779803 20.784231797972495 3.4190495469317783 0 0 0
1547 6 9.202312392665746 23.81710541325532 1.452233123222913 0 0 0
1546 6 9.572404161661053 24.969147587594335 3.3438562828610072 0 0 0
1544 5 10.055838568749373 23.549752892029158 1.9557898047074513 0 0 0
1523 6 10.103585687997551 18.901106624878782 4.260328420834215 0 0 0
1543 4 10.409265665833711 24.308766581675286 2.975542570875792 0 0 0
308 2 13.053605127202248 20.58538347072601 3.347392860469097 0 0 0
1548 6 10.772523127094713 23.013711831186153 1.4973805449161013 0 0 0
1550 6 11.69809418001832 24.75297061737427 4.446084220060516 0 0 0
1545 5 11.5546692417163 24.1678688993917 3.6009556083229612 0 0 0
1549 6 12.13484299796454 23.31703478061239 3.477322421341365 0 0 0
307 1 13.715918802505726 20.53255618882696 19.471034756859105 0 0 -1
1666 6 17.6099493024041 22.160398293370054 4.1142208456539855 0 0 0
1663 4 17.095372733502984 23.0568691971064 3.7386080972542373 0 0 0
1667 6 15.431501230907685 22.010294158555325 3.0888196192655544 0 0 0
310 2 16.641656975383704 20.058779177332067 0.8951308691939723 0 0 0
1664 5 15.931174859907834 22.91505628407171 3.095009885559317 0 0 0
443 2 19.94056919870473 19.974259790599408 3.1772629969057125 0 0 0
1790 6 21.335956861189434 22.259952039436573 3.2553558774734235 0 0 0
1786 6 21.76674379810839 24.28217202355491 4.492086394511846 0 0 0
1785 5 22.060412097779103 22.928671774163472 2.9498723111054512 0 0 0
1789 6 22.56429912475995 22.74992863711544 2.101634142992366 0 0 0
1783 4 22.344020752047616 24.05722668757345 3.6034284776307213 0 0 0
578 2 26.92479289960023 20.110512014804492 3.441081141837812 0 0 0
1906 6 30.5633993436219 22.75890330496489 2.313143562772106 0 0 0
1904 5 31.816464778177718 23.121068091639632 3.9238728831571716 0 0 0
1907 6 32.248466424427264 22.17832581706499 3.7831974004690916 0 0 0
1903 4 30.843853748525603 23.466645594013453 3.0998444797449545 0 0 0
1908 6 31.99442955455339 23.64989619518356 4.746279622504291 0 0 0
580 2 30.019168819068913 20.64458487884842 19.412192491804515 0 0 -1
722 2 33.771836390934936 19.875256584800074 3.287207201146415 0 0 0
725 3 36.337131208324806 23.43195340009845 3.870165837261414 0 0 0
721 1 33.293658412959736 20.17707626460781 19.440537979911362 0 0 -1
724 2 36.529563933465056 20.700104311640793 19.176656590640714 0 0 -1
857 2 39.97201586465919 20.610287611244395 3.6366334128142 0 0 0
860 3 42.725588059226546 23.436730776698077 4.0341775646621265 0 0 0
992 2 45.98548474421504 20.17699793906712 3.7653359491438128 0 0 0
993 2 45.22503076351394 23.281313482920712 0.7987782217131759 0 0 0
991 1 45.64210746680194 20.146182305666233 0.5830734215063851 0 0 0
995 3 48.8619212059577 23.151053146295755 4.041007704332769 0 0 0
994 2 48.98855649618219 20.346836582558645 0.838065926304497 0 0 0
1127 2 52.59139706781267 19.869938745160198 3.66429586648997 0 0 0
1130 3 55.655413857530164 23.010549212383065 3.4843681976062895 0 0 0
1128 2 52.56482952698025 23.21981436912143 19.487986769270087 0 0 -1
1126 1 52.159106154729 20.03156245331382 0.602165883849894 0 0 0
1129 2 55.32902823686252 19.373405067618737 0.47721342646912357 0 0 0
1262 2 58.912835889990845 20.00480010151377 3.2708299764825113 0 0 0
38 2 64.88633519606108 20.300336179080695 3.1201703428216314 -1 0 0
1265 3 61.30610779275936 23.203002378615693 2.5712907331629955 0 0 0
185 2 6.887664947727247 25.844061469549747 3.089337079853094 0 0 0
319 1 13.120164836450083 27.16057916809097 0.36281027628040735 0 0 0
187 2 10.00969994067616 27.07365591790086 19.252633224886363 0 0 -1
1665 5 17.75112081601841 24.158371711633173 3.8914740038084794 0 0 0
320 2 14.741436738174931 26.673200289092588 3.5525285874109005 0 0 0
1669 6 17.348548132151294 25.101883633407265 3.745168301581378 0 0 0
1668 6 15.348497716837825 23.712178875247385 2.79639450723681 0 0 0
455 2 19.073271355680596 27.285269046801318 3.091058408583227 0 0 0
457 2 23.42860953093198 26.796876512186085 0.35079172686614973 0 0 0
1787 6 23.554403178475223 25.626094539309218 3.94866667407254 0 0 0
1784 5 23.36676175983211 24.84008769591286 3.2967711952610768 0 0 0
1788 6 24.0017295680549 24.782260744121125 2.390641772959384 0 0 0
590 2 27.08475523438973 26.634612473188174 3.1447574169778156 0 0 0
1910 6 29.68711447714108 24.864991458442535 2.3507061938030676 0 0 0
1905 5 30.196303359501183 24.60179165251958 3.2163421823987 0 0 0
1909 6 30.435376132797643 25.330521919829152 3.8872285292540987 0 0 0
736 1 33.67119981995292 26.53813960606508 0.5493305578980778 0 0 0
737 2 32.24911444665996 27.5623266299012 3.4835056164682574 0 0 0
739 2 36.466988646486115 27.162942166549158 19.489513250858035 0 0 -1
872 2 39.873440683731616 26.61612302850101 3.4622097048695837 0 0 0
871 1 39.77288108672078 26.428879860864136 0.39035258711006804 0 0 0
1007 2 45.896427897342235 26.29241214120131 3.575823911863094 0 0 0
1009 2 48.89361055143913 25.536300547023544 0.4471426163767801 0 0 0
1142 2 52.29497925016834 26.255527451895674 3.1207563728856984 0 0 0
1277 2 58.43721861256115 25.965473247225347 3.321281445098136 0 0 0
50 2 64.39478910015414 26.11566578463561 3.0753983109158236 -1 0 0
1454 6 1.6665205487608081 29.13774767041082 4.072537974626492 0 0 0
1449 5 2.3447709744665635 29.330704625525645 3.349513906086467 0 0 0
1447 4 3.16123182039006 30.37387994480019 3.576108296590264 0 0 0
1450 6 3.0757080128809164 30.89556723814712 4.520404306679673 0 0 0
1448 5 4.062314232485744 30.865185264179246 2.757546010368406 0 0 0
1452 6 4.14035240197261 30.5396767112159 1.7250884464195055 0 0 0
1451 6 4.732807855241154 31.59351750052977 3.0397883445223615 0 0 0
1453 6 2.208516032537672 28.95160200663269 2.3810015043098156 0 0 0
62 2 64.77759258742464 32.70250174304367 3.3416114642837096 -1 0 0
1572 6 9.444213507449243 30.049365197746486 4.549045065147794 0 0 0
1571 6 8.907697620716865 31.387056677363134 3.492363821048892 0 0 0
1568 5 9.629941297398602 30.68362596889975 3.7662547248474247 0 0 0
186 2 8.010677859814756 30.275557194807604 19.374521439962674 0 0 -1
1573 6 11.75912526857558 29.256248775851056 4.088371922326095 0 0 0
1570 6 10.794009026749752 31.35083763071507 2.155406182741157 0 0 0
1567 4 10.76566827358391 30.7282427558943 3.1315585465669837 0 0 0
1569 5 11.834982994333542 29.97876722085182 3.336847480217126 0 0 0
1574 6 12.516073905148902 29.964055161174027 2.6020803252295237 0 0 0
1693 6 16.94036859159683 29.302232102373544 2.336456244256305 0 0 0
1694 6 16.843291525739385 30.888609791756593 1.5572423386191716 0 0 0
1689 5 16.93167919867885 30.316953108333863 2.4203558834542673 0 0 0
1690 6 17.184810211293467 31.967631462026496 3.60067577281558 0 0 0
1687 4 17.114216717247775 30.88769458091433 3.582483362975661 0 0 0
1688 5 17.16146394567938 30.264832732028875 4.754023015952574 0 0 0
1692 6 17.12472413901026 29.264179119207316 4.8635956757762004 0 0 0
1808 5 23.05348672171354 30.911603071887452 4.253523404223175 0 0 0
1811 6 22.16325332775176 31.418084382022602 4.1328156981875726 0 0 0
1807 4 23.590130636553337 30.44875569105609 3.1367015112234258 0 0 0
1810 6 23.2571963191138 30.91248939407251 2.2416305650195 0 0 0
1812 6 23.258684141366263 30.612962507866044 5.204507799510507 0 0 0
1814 6 24.885989501222067 29.22963556142382 2.2125819025809053 0 0 0
1809 5 24.442101968931595 29.444505929915334 3.1107347102092318 0 0 0
1813 6 24.73619165584806 28.933734229631934 3.9515563235777638 0 0 0
602 2 26.72264867072674 32.744779935465274 3.2173834575125744 0 0 0
1934 6 29.027218257940028 29.587282224156024 1.6945688436104374 0 0 0
1930 6 28.926710207792112 30.613456854907483 3.8071783803289816 0 0 0
1933 6 30.64711516805509 30.095902209288482 1.4188136106781077 0 0 0
1932 6 31.88071800838342 31.039069881089386 3.2695822258397618 0 0 0
1928 5 30.973829155372076 31.049937337398898 3.7947413050798473 0 0 0
1927 4 29.848314259971257 30.5852588483329 3.242172701134848 0 0 0
1929 5 29.81404995252828 30.095779074605904 2.0279836298118106 0 0 0
738 2 33.02063267008463 29.77783702924464 0.351663048330418 0 0 0
740 3 36.942489881561954 29.398254001632523 3.543026438225566 0 0 0
754 2 36.17633042765554 32.09230223198172 0.8136306682391147 0 0 0
886 1 39.45604531470609 32.66380874859005 0.3916715285718487 0 0 0
875 3 42.70981507681501 29.05253597447437 3.903750861280585 0 0 0
1008 2 46.01014847156429 29.620076306891253 19.392409953097967 0 0 -1
1022 2 46.0831806738445 31.94066768735663 3.515769032055271 0 0 0
1010 3 48.893858357760344 29.00706825216312 3.694972133846676 0 0 0
1024 2 48.99063716413642 32.18186751082332 0.6160428518299541 0 0 0
1145 3 55.36083972615849 29.363485383062184 3.678493070329619 0 0 0
1143 2 52.50021842935867 29.53122108075193 19.48099429047797 0 0 -1
1159 2 55.35611264976984 33.0354921436268 0.4007279432392502 0 0 0
1157 2 52.12454667384127 32.6066903300805 3.447520418939355 0 0 0
1278 2 58.3315619102069 29.47868573202765 0.7503792967982896 0 0 0
1291 1 58.57778208026591 32.71980845392342 0.3501558612533022 0 0 0
1280 3 61.58483895583485 29.11182173879157 3.0262950407827205 0 0 0
61 1 1.0319885718212183 32.55509748141036 19.342185942872707 0 0 -1
65 3 4.068235876346561 36.505199128020216 3.781916570942021 0 0 0
197 2 6.905888523699601 33.212693400294945 3.0922140339503 0 0 0
332 2 14.17472200747932 33.24805737374463 3.462073142500857 0 0 0
200 3 10.359979579702893 36.82817261890976 3.7014051980645233 0 0 0
331 1 13.863933750959667 33.347189740601245 0.5532142832448332 0 0 0
199 2 10.6364413594583 33.258976534065816 0.6717438986297253 0 0 0
335 3 16.972990968330734 35.937185484650605 3.633643419340808 0 0 0
334 2 17.188476104373017 33.75503540645473 0.3966117032295491 0 0 0
469 2 23.60536635778676 33.17313790949113 0.48870893115005504 0 0 0
466 1 20.52489365701808 33.22705732433981 0.5490028818257067 0 0 0
467 2 20.031699728125147 32.96109489812877 3.702465819184267 0 0 0
470 3 23.57267487902102 36.53670894739002 3.718061227894684 0 0 0
468 2 20.594143739587633 36.22767269123337 0.4847038222214298 0 0 0
603 2 27.282907114851824 36.1349474465602 0.4446864192963067 0 0 0
605 3 30.001331344485855 36.952919620780385 3.5593439702487424 0 0 0
753 2 32.749016574057634 36.343187254510624 0.5841880067826069 0 0 0
752 2 33.49011457865349 33.61245458958828 3.6391232741200374 0 0 0
751 1 33.150081800791654 33.04466427373522 0.40297700950431053 0 0 0
1951 4 36.29639915209956 36.34187027932376 3.475908949260388 0 0 0
1953 5 36.68464443261752 35.1972618026369 2.940264380527387 0 0 0
1952 5 35.13720551250977 36.91409072033895 3.147848291995185 0 0 0
1956 6 34.436431670986224 36.430354023059834 2.5782998687587777 0 0 0
1954 6 36.96604849299866 36.774524112093395 4.228575300083811 0 0 0
1958 6 37.61669408689706 34.84902404858685 3.17413976580207 0 0 0
1957 6 36.273543044528815 34.800061553589046 2.1020447403619555 0 0 0
887 2 39.81003421104241 33.57276578002162 3.6772380217130904 0 0 0
2076 6 41.67460055032538 35.2954994433048 2.876981727560856 0 0 0
2074 6 44.01844003833989 36.88742239869202 3.369541284231218 0 0 0
2075 6 43.172488236887794 35.61006442056192 1.8350308101102668 0 0 0
2077 6 41.87471707625911 36.07831774418617 5.219349344558703 0 0 0
2072 5 42.53327845876351 35.80311822684483 2.6337770928186375 0 0 0
2071 4 43.098920344155495 36.414383076495426 3.660968849367005 0 0 0
2073 5 42.655534826375145 36.511991544102486 4.918188201210686 0 0 0
2078 6 43.33122729788011 36.833257272342706 5.652312235112877 0 0 0
1023 2 45.81133815663431 35.99380282053721 0.6402021543312706 0 0 0
2191 4 48.376053261537145 35.47422206300582 3.802455637351637 0 0 0
2192 5 48.804039168751544 36.60669879625549 3.2712964237313966 0 0 0
2196 6 49.47737039929766 36.52408180486793 2.547591774126625 0 0 0
2195 6 48.19094338248131 37.45718989932346 3.2656297704582875 0 0 0
2194 6 47.438111459225226 35.4800690235827 4.407326470385144 0 0 0
2193 5 49.04563623990832 34.34494526089919 3.600591441449968 0 0 0
2198 6 48.757452918383834 33.54765292641116 4.160551717297111 0 0 0
2197 6 49.80343409786139 34.295268954459544 2.9512460986109605 0 0 0
2316 6 55.157748033008204 35.35872956012973 1.8800931058891819 0 0 0
2313 5 54.83201535172829 35.27399920859776 4.4994242469329855 0 0 0
2317 6 54.04453067116213 34.73405880730497 4.072480551663002 0 0 0
2318 6 54.904972633116294 35.303116121743315 5.52930414716164 0 0 0
2312 5 55.835827459440644 35.8836658420143 2.444299070372992 0 0 0
2311 4 55.76722328271119 35.85667127981688 3.764610319140726 0 0 0
1158 2 52.13633152550346 35.87905995959327 0.3156680225888711 0 0 0
1292 2 58.66803752245921 33.329233738268464 3.5610785638053497 0 0 0
2314 6 56.500981440534 36.39231346354008 4.302410890751172 0 0 0
2315 6 56.67638619267609 36.179297062649766 1.9639664218314092 0 0 0
1293 2 58.6858193276516 35.857976329297195 19.467122712015122 0 0 -1
2436 6 60.86800939522632 36.51898499687621 4.288791451975853 0 0 0
2437 6 61.55824337201691 37.20073069878445 2.053471979786697 0 0 0
2434 6 62.92902035788235 34.713502805918225 3.0934513586421812 0 0 0
2431 4 62.27878031086358 35.594779411806684 3.11173402074469 0 0 0
2433 5 62.30615267453305 36.53148782241091 2.1746508909374493 0 0 0
2438 6 62.864451878141466 36.33624466275026 1.3239137849375975 0 0 0
2432 5 61.54871282966624 35.745489410701126 4.2070763777366444 0 0 0
2435 6 61.364277262693285 34.93644376447821 4.827574430274512 0 0 0
77 2 1.2428432432709076 39.076875372185626 3.4723047624455097 0 0 0
212 2 7.447013267268239 39.61239059480487 3.576973245327112 0 0 0
347 2 14.364757689952192 39.83068829964198 3.560056078336103 0 0 0
214 2 10.644184334763311 39.41049410842623 0.73475957441132 0 0 0
349 2 16.88401785934563 38.760109354260976 0.5170525973145091 0 0 0
482 2 20.508464772517765 39.395629078609375 3.5773354788096645 0 0 0
481 1 20.06658098163525 39.28179688526548 0.5093747990648382 0 0 0
617 2 26.42261825662365 39.54849206644635 3.5771773468121775 0 0 0
616 1 26.62091501395235 39.345482542224204 0.4613286503410409 0 0 0
619 2 29.84153766459076 39.99800949295519 0.4926245233486518 0 0 0
1955 6 34.80845048408038 37.78573130678398 3.5960650597809973 0 0 0
764 2 33.35524519732072 40.235544858527774 3.920529115206737 0 0 0
763 1 32.81817360928295 39.67352120585818 0.5050166209569816 0 0 0
766 2 36.00513681521254 39.44334936395067 0.9479853889650389 0 0 0
1982 6 37.653833930570016 41.39976691309164 3.954650194712878 0 0 0
899 2 39.049540685105825 38.90178103467573 3.808578077483612 0 0 0
898 1 39.32490710908658 39.217064206007 0.6378062671251378 0 0 0
2101 6 42.401258677065115 41.44393095997149 2.107160870347875 0 0 0
1034 2 46.056214822944604 39.17491302781686 3.3925092246266413 0 0 0
2097 5 43.01137679040807 41.3657834016644 2.881633117290166 0 0 0
2102 6 43.533676684015425 40.517000531919216 3.135311947041382 0 0 0
2217 5 50.17633149230783 40.97635786081495 3.862338913792021 0 0 0
1036 2 49.033073100600376 39.04059325419756 19.500285911197263 0 0 -1
2218 6 48.15420206086557 40.99868781371428 3.654465301949594 0 0 0
1169 2 52.504569761278624 38.387964522232224 3.5916423135603446 0 0 0
2341 6 54.423616099918526 40.842818246422006 4.07749624502207 0 0 0
1168 1 52.46087145909784 39.07387438351211 0.5777041558788985 0 0 0
2337 5 54.62141825670964 41.49263437833352 3.352027703114645 0 0 0
1304 2 59.47827737543038 38.60300535730567 3.5442292984716732 0 0 0
2459 6 61.512198133555586 40.20122587395886 3.0441424923120057 0 0 0
2456 5 62.17100029581278 40.95054236075066 3.254581840564998 0 0 0
2460 6 63.177505977509256 40.78315773359471 3.435180696120965 0 0 0
2455 4 61.673309659630256 42.14939965420357 3.498667659649919 0 0 0
80 3 4.528958666725177 42.14226480668417 2.626724117502736 0 0 0
92 2 1.3055869868688266 45.31165879929542 3.608040291816889 0 0 0
91 1 1.588205285985064 45.54509651208386 0.41582769235578304 0 0 0
94 2 4.612612785408322 45.74924504075602 0.5594443055838223 0 0 0
78 2 1.268876376811678 42.20095553056281 0.776205462525845 0 0 0
227 2 7.035968487706731 45.25263892359719 3.4936397483497648 0 0 0
226 1 7.711925831743294 45.83578913674863 0.32608427836272535 0 0 0
215 3 10.74542157708914 42.979136200696026 4.09230128519266 0 0 0
362 2 13.989089077001768 45.0276472616832 3.743394074411034 0 0 0
229 2 10.924301205043768 46.569611880264674 0.7063705984874029 0 0 0
350 3 17.372875828612955 42.39764037834657 3.235157424806224 0 0 0
497 2 20.517820864739864 45.65707558963158 3.409006845793879 0 0 0
485 3 23.25612446020654 42.673919315924955 2.4521787034966542 0 0 0
632 2 26.384607590220813 46.28408969354617 3.5152812963653237 0 0 0
631 1 26.836300437679277 45.562758279186816 19.46582164031979 0 0 -1
620 3 29.403597328931667 43.16802270851351 4.31601884531448 0 0 0
775 1 32.90315136477292 45.69368096868226 0.7331860356856519 0 0 0